REMARK  Name = 
REMARK  4 active torsions:
REMARK  status: ('A' for Active; 'I' for Inactive)
REMARK    1  A    between atoms: C_3  and  C_4
REMARK    2  A    between atoms: C_14  and  C_15
REMARK    3  A    between atoms: C_18  and  C_19
REMARK    4  A    between atoms: C_19  and  O_20
REMARK                            x       y       z     vdW  Elec       q    Type
REMARK                         _______ _______ _______ _____ _____    ______ ____
ROOT
ATOM      1  P   UNL     1      -1.590   1.403  -0.831  0.00  0.00    +0.000 P 
ATOM      2  C   UNL     1      -2.056  -0.467  -0.450  0.00  0.00    +0.000 C 
ATOM      3  C   UNL     1      -1.090  -1.206   0.556  0.00  0.00    +0.000 C 
ATOM      4  N   UNL     1       0.244  -1.305  -0.128  0.00  0.00    +0.000 NA
ATOM      5  C   UNL     1       0.671  -0.118  -0.368  0.00  0.00    +0.000 C 
ATOM      6  N   UNL     1       1.797   0.369  -0.965  0.00  0.00    +0.000 NA
ATOM      7  C   UNL     1       1.378   1.586  -0.809  0.00  0.00    +0.000 C 
ATOM      8  C   UNL     1       0.077   1.238  -0.166  0.00  0.00    +0.000 C 
ENDROOT
BRANCH   3   9
ATOM      9  C   UNL     1      -1.038  -0.597   1.978  0.00  0.00    +0.000 A 
ATOM     10  C   UNL     1      -2.168   0.094   2.468  0.00  0.00    +0.000 A 
ATOM     11  C   UNL     1      -2.079   0.943   3.575  0.00  0.00    +0.000 A 
ATOM     12  C   UNL     1      -0.876   1.089   4.246  0.00  0.00    +0.000 A 
ATOM     13  C   UNL     1       0.212   0.303   3.875  0.00  0.00    +0.000 A 
ATOM     14  C   UNL     1       0.119  -0.574   2.785  0.00  0.00    +0.000 A 
ATOM     15 CL   UNL     1       1.506  -1.569   2.515  0.00  0.00    +0.000 Cl
ENDBRANCH   3   9
BRANCH   7  16
ATOM     16  C   UNL     1       1.990   2.848  -0.983  0.00  0.00    +0.000 A 
ATOM     17  C   UNL     1       3.253   3.153  -1.433  0.00  0.00    +0.000 A 
ATOM     18  N   UNL     1       3.581   4.497  -1.416  0.00  0.00    +0.000 NA
ATOM     19  C   UNL     1       2.558   5.194  -0.955  0.00  0.00    +0.000 A 
ATOM     20  S   UNL     1       1.182   4.280  -0.509  0.00  0.00    +0.000 S 
BRANCH  19  21
ATOM     21  C   UNL     1       2.548   6.683  -0.804  0.00  0.00    +0.000 C 
BRANCH  21  22
ATOM     22  O   UNL     1       3.803   7.197  -1.251  0.00  0.00    +0.000 OA
ATOM     23  H   UNL     1       4.361   6.417  -1.450  0.00  0.00    +0.000 HD
ENDBRANCH  21  22
ENDBRANCH  19  21
ENDBRANCH   7  16
TORSDOF 4
