MODEL 1
REMARK VINA RESULT:      -7.6      0.000      0.000
REMARK  Name = 
REMARK  4 active torsions:
REMARK  status: ('A' for Active; 'I' for Inactive)
REMARK    1  A    between atoms: C_3  and  C_4
REMARK    2  A    between atoms: C_14  and  C_15
REMARK    3  A    between atoms: C_18  and  C_19
REMARK    4  A    between atoms: C_19  and  O_20
REMARK                            x       y       z     vdW  Elec       q    Type
REMARK                         _______ _______ _______ _____ _____    ______ ____
ROOT
ATOM      1  P   UNL     1      22.299   0.438  53.319  0.00  0.00    +0.000 P 
ATOM      2  C   UNL     1      21.129   1.949  52.866  0.00  0.00    +0.000 C 
ATOM      3  C   UNL     1      21.749   2.999  51.865  0.00  0.00    +0.000 C 
ATOM      4  N   UNL     1      22.900   3.645  52.582  0.00  0.00    +0.000 NA
ATOM      5  C   UNL     1      23.763   2.739  52.871  0.00  0.00    +0.000 C 
ATOM      6  N   UNL     1      24.966   2.763  53.513  0.00  0.00    +0.000 NA
ATOM      7  C   UNL     1      25.084   1.478  53.384  0.00  0.00    +0.000 C 
ATOM      8  C   UNL     1      23.779   1.255  52.695  0.00  0.00    +0.000 C 
ENDROOT
BRANCH   3   9
ATOM      9  C   UNL     1      22.097   2.439  50.464  0.00  0.00    +0.000 A 
ATOM     10  C   UNL     1      23.232   2.942  49.790  0.00  0.00    +0.000 A 
ATOM     11  C   UNL     1      23.412   2.741  48.418  0.00  0.00    +0.000 A 
ATOM     12  C   UNL     1      22.492   1.999  47.696  0.00  0.00    +0.000 A 
ATOM     13  C   UNL     1      21.448   1.366  48.367  0.00  0.00    +0.000 A 
ATOM     14  C   UNL     1      21.281   1.539  49.749  0.00  0.00    +0.000 A 
ATOM     15 CL   UNL     1      20.017   0.602  50.464  0.00  0.00    +0.000 Cl
ENDBRANCH   3   9
BRANCH   7  16
ATOM     16  C   UNL     1      26.149   0.578  53.615  0.00  0.00    +0.000 A 
ATOM     17  C   UNL     1      26.856   0.336  54.769  0.00  0.00    +0.000 A 
ATOM     18  N   UNL     1      27.902  -0.561  54.648  0.00  0.00    +0.000 NA
ATOM     19  C   UNL     1      27.971  -0.991  53.401  0.00  0.00    +0.000 A 
ATOM     20  S   UNL     1      26.813  -0.333  52.327  0.00  0.00    +0.000 S 
BRANCH  19  21
ATOM     21  C   UNL     1      28.977  -1.981  52.902  0.00  0.00    +0.000 C 
BRANCH  21  22
ATOM     22  O   UNL     1      28.390  -3.282  52.925  0.00  0.00    +0.000 OA
ATOM     23  H   UNL     1      28.651  -3.683  53.779  0.00  0.00    +0.000 HD
ENDBRANCH  21  22
ENDBRANCH  19  21
ENDBRANCH   7  16
TORSDOF 4
ENDMDL
